# vtk DataFile Version 2.0
VTK from Matlab
ASCII
DATASET UNSTRUCTURED_GRID
POINTS 77 float
-0.00 0.00 0.00 1.00 0.00 0.00 1.00 0.50 0.00 -0.00 0.50 0.00 0.10 0.00 0.00 0.20 0.00 0.00 0.30 0.00 0.00 0.40 0.00 0.00 0.50 0.00 0.00 0.60 0.00 0.00 0.70 0.00 0.00 0.80 0.00 0.00 0.90 0.00 0.00 1.00 0.08 0.00 1.00 0.17 0.00 1.00 0.25 0.00 1.00 0.33 0.00 1.00 0.42 0.00 0.90 0.50 0.00 0.80 0.50 0.00 0.70 0.50 0.00 0.60 0.50 0.00 0.50 0.50 0.00 0.40 0.50 0.00 0.30 0.50 0.00 0.20 0.50 0.00 0.10 0.50 0.00 0.00 0.42 0.00 0.00 0.33 0.00 0.00 0.25 0.00 0.00 0.17 0.00 0.00 0.08 0.00 0.10 0.08 0.00 0.10 0.17 0.00 0.10 0.25 0.00 0.10 0.33 0.00 0.10 0.42 0.00 0.20 0.08 0.00 0.20 0.17 0.00 0.20 0.25 0.00 0.20 0.33 0.00 0.20 0.42 0.00 0.30 0.08 0.00 0.30 0.17 0.00 0.30 0.25 0.00 0.30 0.33 0.00 0.30 0.42 0.00 0.40 0.08 0.00 0.40 0.17 0.00 0.40 0.25 0.00 0.40 0.33 0.00 0.40 0.42 0.00 0.50 0.08 0.00 0.50 0.17 0.00 0.50 0.25 0.00 0.50 0.33 0.00 0.50 0.42 0.00 0.60 0.08 0.00 0.60 0.17 0.00 0.60 0.25 0.00 0.60 0.33 0.00 0.60 0.42 0.00 0.70 0.08 0.00 0.70 0.17 0.00 0.70 0.25 0.00 0.70 0.33 0.00 0.70 0.42 0.00 0.80 0.08 0.00 0.80 0.17 0.00 0.80 0.25 0.00 0.80 0.33 0.00 0.80 0.42 0.00 0.90 0.08 0.00 0.90 0.17 0.00 0.90 0.25 0.00 0.90 0.33 0.00 0.90 0.42 0.00 
POINT_DATA 77
SCALARS Temp float
LOOKUP_TABLE default
0.00 1379.37 1379.37 0.00 124.15 248.69 374.01 500.49 628.48 758.44 891.00 1027.88 1171.80 1293.99 1276.70 1271.32 1276.70 1293.99 1171.80 1027.88 891.00 758.44 628.48 500.49 374.01 248.69 124.15 0.00 0.00 0.00 0.00 0.00 124.15 124.15 124.15 124.15 124.15 248.69 248.69 248.69 248.69 248.69 374.01 374.00 373.99 374.00 374.01 500.47 500.43 500.41 500.43 500.47 628.42 628.29 628.23 628.29 628.42 758.23 757.83 757.62 757.83 758.23 890.38 889.06 888.44 889.06 890.38 1025.57 1021.71 1019.40 1021.71 1025.57 1167.72 1152.13 1148.05 1152.13 1167.72 